# vtk DataFile Version 3.0
vtk output
ASCII
DATASET POLYDATA
FIELD FieldData 2
TIME 1 1 double
1.000000e+00
CYCLE 1 1 int
1
POINTS 358 float
4.403144e+00 -9.222134e-01 2.199996e-01
4.403121e+00 -7.864087e-02 2.200077e-01
4.678694e+00 -8.085744e-02 4.837264e-01
4.729000e+00 -8.839635e-01 5.318396e-01
4.403121e+00 -7.864087e-02 2.200077e-01
4.403120e+00 -6.003358e-02 2.200079e-01
4.678609e+00 -6.001566e-02 4.836463e-01
4.678694e+00 -8.085744e-02 4.837264e-01
4.678611e+00 -6.001566e-02 4.836440e-01
4.403108e+00 -6.003358e-02 2.200210e-01
4.403109e+00 6.889155e-01 2.200319e-01
4.675628e+00 6.775076e-01 4.807988e-01
4.403109e+00 6.889155e-01 2.200319e-01
4.403109e+00 9.799851e-01 2.200362e-01
4.678924e+00 9.799926e-01 4.839571e-01
4.675628e+00 6.775076e-01 4.807988e-01
4.678924e+00 9.799926e-01 4.839569e-01
4.403108e+00 9.799851e-01 2.200374e-01
4.403108e+00 1.500000e+00 2.200374e-01
4.684595e+00 1.500000e+00 4.893828e-01
4.403108e+00 1.500000e+00 2.200374e-01
4.403108e+00 2.020015e+00 2.200374e-01
4.678924e+00 2.020007e+00 4.839569e-01
4.684595e+00 1.500000e+00 4.893828e-01
4.875042e+00 1.500000e+00 6.716157e-01
4.875042e+00 9.799980e-01 6.716157e-01
4.678924e+00 9.799926e-01 4.839569e-01
4.684595e+00 1.500000e+00 4.893828e-01
4.875042e+00 1.500000e+00 6.716157e-01
4.684595e+00 1.500000e+00 4.893828e-01
4.678924e+00 2.020007e+00 4.839569e-01
4.875042e+00 2.020002e+00 6.716157e-01
4.678924e+00 2.020007e+00 4.839571e-01
4.403109e+00 2.020015e+00 2.200362e-01
4.403109e+00 2.311084e+00 2.200319e-01
4.675628e+00 2.322492e+00 4.807987e-01
4.403109e+00 2.311084e+00 2.200319e-01
4.403108e+00 3.060033e+00 2.200209e-01
4.678611e+00 3.060015e+00 4.836438e-01
4.675628e+00 2.322492e+00 4.807987e-01
4.678609e+00 3.060015e+00 4.836461e-01
4.403120e+00 3.060033e+00 2.200078e-01
4.403121e+00 3.078641e+00 2.200077e-01
4.678694e+00 3.080858e+00 4.837263e-01
4.403121e+00 3.078641e+00 2.200077e-01
4.403144e+00 3.922213e+00 2.199996e-01
4.729000e+00 3.883964e+00 5.318393e-01
4.678694e+00 3.080858e+00 4.837263e-01
3.844727e+00 -9.490663e-01 -1.188256e-01
3.844723e+00 -7.701834e-01 -1.188201e-01
3.851832e+00 -9.489402e-01 -1.145144e-01
3.844723e+00 3.770190e+00 -1.188201e-01
3.844727e+00 3.949066e+00 -1.188256e-01
3.851832e+00 3.948940e+00 -1.145145e-01
3.226192e+00 -9.613556e-01 -3.287352e-01
3.226180e+00 -8.004480e-02 -3.287332e-01
3.283025e+00 -7.810101e-02 -3.094410e-01
3.317893e+00 -9.573256e-01 -2.976130e-01
3.844714e+00 -7.622380e-02 -1.188124e-01
3.844721e+00 -8.035740e-01 -1.188151e-01
3.813726e+00 -7.612022e-02 -1.293292e-01
3.844714e+00 -7.622380e-02 -1.188124e-01
3.813726e+00 -7.612022e-02 -1.293292e-01
3.813036e+00 -6.005065e-02 -1.295633e-01
3.844714e+00 -6.005024e-02 -1.188123e-01
3.282557e+00 -6.005740e-02 -3.096039e-01
3.226181e+00 -6.005812e-02 -3.287380e-01
3.226181e+00 7.195004e-01 -3.287147e-01
3.262291e+00 7.198985e-01 -3.164589e-01
3.226181e+00 7.195004e-01 -3.287147e-01
3.226181e+00 9.799620e-01 -3.287069e-01
3.259622e+00 9.799626e-01 -3.173569e-01
3.262291e+00 7.198985e-01 -3.164589e-01
3.813035e+00 -6.005065e-02 -1.295589e-01
3.282557e+00 -6.005740e-02 -3.096039e-01
3.262291e+00 7.198985e-01 -3.164589e-01
3.780012e+00 7.087296e-01 -1.407439e-01
3.776301e+00 9.799729e-01 -1.419954e-01
3.780012e+00 7.087296e-01 -1.407439e-01
3.262291e+00 7.198985e-01 -3.164589e-01
3.259622e+00 9.799626e-01 -3.173569e-01
3.844719e+00 7.068797e-01 -1.187821e-01
3.844712e+00 -6.005024e-02 -1.188074e-01
3.813035e+00 -6.005065e-02 -1.295589e-01
3.780012e+00 7.087296e-01 -1.407439e-01
3.844719e+00 7.068797e-01 -1.187821e-01
3.780012e+00 7.087296e-01 -1.407439e-01
3.776301e+00 9.799729e-01 -1.419954e-01
3.844722e+00 9.799743e-01 -1.187731e-01
3.844722e+00 1.500000e+00 -1.187751e-01
3.844722e+00 9.799743e-01 -1.187751e-01
3.776301e+00 9.799729e-01 -1.419969e-01
3.769191e+00 1.500000e+00 -1.444101e-01
3.844722e+00 1.500000e+00 -1.187751e-01
3.769191e+00 1.500000e+00 -1.444101e-01
3.776301e+00 2.020027e+00 -1.419970e-01
3.844723e+00 2.020026e+00 -1.187751e-01
3.259622e+00 2.020037e+00 -3.173569e-01
3.226181e+00 2.020038e+00 -3.287069e-01
3.226181e+00 2.280500e+00 -3.287147e-01
3.262291e+00 2.280102e+00 -3.164590e-01
3.226181e+00 2.280500e+00 -3.287147e-01
3.226181e+00 3.060058e+00 -3.287380e-01
3.282557e+00 3.060057e+00 -3.096040e-01
3.262291e+00 2.280102e+00 -3.164590e-01
3.776301e+00 2.020027e+00 -1.419954e-01
3.259622e+00 2.020037e+00 -3.173569e-01
3.262291e+00 2.280102e+00 -3.164590e-01
3.780012e+00 2.291271e+00 -1.407440e-01
3.813034e+00 3.060050e+00 -1.295591e-01
3.780012e+00 2.291271e+00 -1.407440e-01
3.262291e+00 2.280102e+00 -3.164590e-01
3.282557e+00 3.060057e+00 -3.096040e-01
3.844719e+00 2.293121e+00 -1.187821e-01
3.844722e+00 2.020026e+00 -1.187731e-01
3.776301e+00 2.020027e+00 -1.419954e-01
3.780012e+00 2.291271e+00 -1.407440e-01
3.844719e+00 2.293121e+00 -1.187821e-01
3.780012e+00 2.291271e+00 -1.407440e-01
3.813034e+00 3.060050e+00 -1.295591e-01
3.844713e+00 3.060050e+00 -1.188075e-01
3.226180e+00 3.080045e+00 -3.287332e-01
3.226192e+00 3.961356e+00 -3.287352e-01
3.317893e+00 3.957325e+00 -2.976131e-01
3.283025e+00 3.078101e+00 -3.094411e-01
3.844714e+00 3.076224e+00 -1.188124e-01
3.844714e+00 3.060050e+00 -1.188123e-01
3.813036e+00 3.060050e+00 -1.295634e-01
3.813726e+00 3.076121e+00 -1.293293e-01
3.844714e+00 3.076224e+00 -1.188124e-01
3.813726e+00 3.076121e+00 -1.293293e-01
3.844721e+00 3.803581e+00 -1.188151e-01
2.722979e+00 -6.004937e-02 -3.838357e-01
2.576874e+00 -6.004683e-02 -3.998316e-01
2.576857e+00 7.067800e-01 -3.998013e-01
2.730775e+00 7.144250e-01 -3.829498e-01
2.576857e+00 7.067800e-01 -3.998013e-01
2.576851e+00 9.799629e-01 -3.997906e-01
2.734100e+00 9.799626e-01 -3.825747e-01
2.730775e+00 7.144250e-01 -3.829498e-01
3.226181e+00 7.195450e-01 -3.287117e-01
3.226182e+00 -6.005812e-02 -3.287441e-01
2.722979e+00 -6.004937e-02 -3.838357e-01
2.730775e+00 7.144250e-01 -3.829498e-01
3.226181e+00 7.195450e-01 -3.287117e-01
2.730775e+00 7.144250e-01 -3.829498e-01
2.734100e+00 9.799626e-01 -3.825747e-01
3.226180e+00 9.799620e-01 -3.287008e-01
2.734100e+00 2.020037e+00 -3.825747e-01
2.576851e+00 2.020037e+00 -3.997906e-01
2.576857e+00 2.293220e+00 -3.998013e-01
2.730775e+00 2.285575e+00 -3.829498e-01
2.576857e+00 2.293220e+00 -3.998013e-01
2.576874e+00 3.060047e+00 -3.998316e-01
2.722979e+00 3.060049e+00 -3.838357e-01
2.730775e+00 2.285575e+00 -3.829498e-01
3.226181e+00 2.280455e+00 -3.287117e-01
3.226180e+00 2.020038e+00 -3.287009e-01
2.734100e+00 2.020037e+00 -3.825747e-01
2.730775e+00 2.285575e+00 -3.829498e-01
3.226181e+00 2.280455e+00 -3.287117e-01
2.730775e+00 2.285575e+00 -3.829498e-01
2.722979e+00 3.060049e+00 -3.838357e-01
3.226183e+00 3.060058e+00 -3.287441e-01
1.927598e+00 -1.020267e+00 -3.287382e-01
1.927580e+00 -1.357725e-01 -3.287422e-01
2.145209e+00 -1.299418e-01 -3.525683e-01
2.155954e+00 -1.021480e+00 -3.537388e-01
1.927580e+00 -1.357725e-01 -3.287422e-01
1.927579e+00 -6.002356e-02 -3.287425e-01
2.147988e+00 -6.003146e-02 -3.528730e-01
2.145209e+00 -1.299418e-01 -3.525683e-01
2.147988e+00 -6.003146e-02 -3.528702e-01
1.927580e+00 -6.002356e-02 -3.287338e-01
1.927575e+00 6.776872e-01 -3.286989e-01
2.177696e+00 6.874074e-01 -3.560886e-01
1.927575e+00 6.776872e-01 -3.286989e-01
1.927573e+00 9.799860e-01 -3.286846e-01
2.186900e+00 9.799768e-01 -3.570830e-01
2.177696e+00 6.874074e-01 -3.560886e-01
2.576857e+00 7.070593e-01 -3.997990e-01
2.576874e+00 -6.004683e-02 -3.998365e-01
2.147988e+00 -6.003146e-02 -3.528702e-01
2.177696e+00 6.874074e-01 -3.560886e-01
2.576857e+00 7.070593e-01 -3.997990e-01
2.177696e+00 6.874074e-01 -3.560886e-01
2.186900e+00 9.799768e-01 -3.570830e-01
2.576851e+00 9.799629e-01 -3.997856e-01
2.186900e+00 2.020023e+00 -3.570830e-01
1.927573e+00 2.020014e+00 -3.286846e-01
1.927575e+00 2.322313e+00 -3.286989e-01
2.177696e+00 2.312593e+00 -3.560886e-01
1.927575e+00 2.322313e+00 -3.286989e-01
1.927580e+00 3.060023e+00 -3.287338e-01
2.147988e+00 3.060031e+00 -3.528702e-01
2.177696e+00 2.312593e+00 -3.560886e-01
2.576857e+00 2.292941e+00 -3.997990e-01
2.576851e+00 2.020037e+00 -3.997856e-01
2.186900e+00 2.020023e+00 -3.570830e-01
2.177696e+00 2.312593e+00 -3.560886e-01
2.576857e+00 2.292941e+00 -3.997990e-01
2.177696e+00 2.312593e+00 -3.560886e-01
2.147988e+00 3.060031e+00 -3.528702e-01
2.576874e+00 3.060047e+00 -3.998365e-01
2.147987e+00 3.060031e+00 -3.528729e-01
1.927579e+00 3.060023e+00 -3.287425e-01
1.927581e+00 3.135773e+00 -3.287422e-01
2.145209e+00 3.129942e+00 -3.525683e-01
1.927581e+00 3.135773e+00 -3.287422e-01
1.927598e+00 4.020267e+00 -3.287382e-01
2.155954e+00 4.021480e+00 -3.537387e-01
2.145209e+00 3.129942e+00 -3.525683e-01
1.309085e+00 6.660214e-01 -1.187653e-01
1.309088e+00 9.799935e-01 -1.187564e-01
1.588028e+00 9.799901e-01 -2.134386e-01
1.577927e+00 6.636314e-01 -2.100195e-01
1.927574e+00 6.779040e-01 -3.287016e-01
1.927582e+00 -6.002356e-02 -3.287272e-01
1.548683e+00 -6.001452e-02 -2.001155e-01
1.577927e+00 6.636314e-01 -2.100195e-01
1.927574e+00 6.779040e-01 -3.287016e-01
1.577927e+00 6.636314e-01 -2.100195e-01
1.588028e+00 9.799901e-01 -2.134386e-01
1.927571e+00 9.799860e-01 -3.286912e-01
1.588028e+00 2.020010e+00 -2.134386e-01
1.309088e+00 2.020006e+00 -1.187564e-01
1.309086e+00 2.333978e+00 -1.187653e-01
1.577927e+00 2.336369e+00 -2.100194e-01
1.927574e+00 2.322096e+00 -3.287016e-01
1.927571e+00 2.020014e+00 -3.286912e-01
1.588028e+00 2.020010e+00 -2.134386e-01
1.577927e+00 2.336369e+00 -2.100194e-01
1.927574e+00 2.322096e+00 -3.287016e-01
1.577927e+00 2.336369e+00 -2.100194e-01
1.548683e+00 3.060014e+00 -2.001155e-01
1.927583e+00 3.060023e+00 -3.287272e-01
7.506468e-01 -8.697720e-01 2.199598e-01
7.506671e-01 -7.302559e-02 2.200001e-01
9.931309e-01 -1.116713e-01 7.289788e-02
9.011604e-01 -9.158266e-01 1.286421e-01
7.506671e-01 -7.302559e-02 2.200001e-01
7.506674e-01 -5.999890e-02 2.200008e-01
9.945188e-01 -6.000322e-02 7.205926e-02
9.931309e-01 -1.116713e-01 7.289788e-02
1.309081e+00 -9.880870e-01 -1.188428e-01
9.011604e-01 -9.158266e-01 1.286421e-01
9.931309e-01 -1.116713e-01 7.289788e-02
1.309081e+00 -1.324340e-01 -1.187865e-01
1.309081e+00 -1.324340e-01 -1.187865e-01
9.931309e-01 -1.116713e-01 7.289788e-02
9.945188e-01 -6.000322e-02 7.205926e-02
1.309081e+00 -6.000880e-02 -1.187817e-01
9.945181e-01 -6.000322e-02 7.205859e-02
7.506636e-01 -5.999890e-02 2.199944e-01
7.506648e-01 6.861271e-01 2.199988e-01
1.014079e+00 6.688757e-01 6.019716e-02
7.506648e-01 6.861271e-01 2.199988e-01
7.506653e-01 9.799985e-01 2.200006e-01
1.019639e+00 9.799961e-01 5.682599e-02
1.014079e+00 6.688757e-01 6.019716e-02
1.309084e+00 6.659831e-01 -1.187695e-01
1.309085e+00 -6.000880e-02 -1.187754e-01
9.945181e-01 -6.000322e-02 7.205859e-02
1.014079e+00 6.688757e-01 6.019716e-02
1.309084e+00 6.659831e-01 -1.187695e-01
1.014079e+00 6.688757e-01 6.019716e-02
1.019639e+00 9.799961e-01 5.682599e-02
1.309083e+00 9.799935e-01 -1.187670e-01
1.019639e+00 9.799961e-01 5.682595e-02
7.506633e-01 9.799985e-01 2.199973e-01
7.506634e-01 1.500000e+00 2.199973e-01
1.028931e+00 1.500000e+00 5.118895e-02
7.506634e-01 1.500000e+00 2.199973e-01
7.506634e-01 2.020001e+00 2.199973e-01
1.019639e+00 2.020004e+00 5.682602e-02
1.028931e+00 1.500000e+00 5.118895e-02
1.309085e+00 1.500000e+00 -1.187638e-01
1.309085e+00 9.799935e-01 -1.187638e-01
1.019639e+00 9.799961e-01 5.682595e-02
1.028931e+00 1.500000e+00 5.118895e-02
1.309085e+00 1.500000e+00 -1.187638e-01
1.028931e+00 1.500000e+00 5.118895e-02
1.019639e+00 2.020004e+00 5.682602e-02
1.309085e+00 2.020006e+00 -1.187638e-01
1.019639e+00 2.020004e+00 5.682606e-02
7.506654e-01 2.020001e+00 2.200006e-01
7.506649e-01 2.313873e+00 2.199988e-01
1.014079e+00 2.331124e+00 6.019723e-02
7.506649e-01 2.313873e+00 2.199988e-01
7.506637e-01 3.059999e+00 2.199944e-01
9.945181e-01 3.060003e+00 7.205867e-02
1.014079e+00 2.331124e+00 6.019723e-02
1.309084e+00 2.334017e+00 -1.187695e-01
1.309083e+00 2.020006e+00 -1.187670e-01
1.019639e+00 2.020004e+00 5.682606e-02
1.014079e+00 2.331124e+00 6.019723e-02
1.309084e+00 2.334017e+00 -1.187695e-01
1.014079e+00 2.331124e+00 6.019723e-02
9.945181e-01 3.060003e+00 7.205867e-02
1.309085e+00 3.060009e+00 -1.187753e-01
9.945188e-01 3.060003e+00 7.205935e-02
7.506675e-01 3.059999e+00 2.200008e-01
7.506672e-01 3.073026e+00 2.200001e-01
9.931309e-01 3.111671e+00 7.289797e-02
7.506672e-01 3.073026e+00 2.200001e-01
7.506470e-01 3.869772e+00 2.199598e-01
9.011604e-01 3.915827e+00 1.286422e-01
9.931309e-01 3.111671e+00 7.289797e-02
1.309081e+00 3.132434e+00 -1.187865e-01
1.309081e+00 3.060009e+00 -1.187817e-01
9.945188e-01 3.060003e+00 7.205935e-02
9.931309e-01 3.111671e+00 7.289797e-02
1.309081e+00 3.132434e+00 -1.187865e-01
9.931309e-01 3.111671e+00 7.289797e-02
9.011604e-01 3.915827e+00 1.286422e-01
1.309081e+00 3.988087e+00 -1.188428e-01
7.506521e-01 -8.705856e-01 2.199660e-01
4.533088e-01 -7.633842e-01 5.045801e-01
5.320896e-01 -5.999931e-02 4.291984e-01
6.781111e-01 -5.999904e-02 2.894299e-01
7.506578e-01 -7.367437e-02 2.199893e-01
7.506578e-01 -7.367437e-02 2.199893e-01
6.781111e-01 -5.999904e-02 2.894299e-01
7.506579e-01 -5.999890e-02 2.199897e-01
6.781149e-01 -5.999904e-02 2.894367e-01
5.351087e-01 -3.304231e-02 4.263098e-01
5.556620e-01 7.010434e-01 4.066364e-01
7.506640e-01 6.858936e-01 2.199975e-01
7.506654e-01 -5.999890e-02 2.199976e-01
7.506640e-01 6.858936e-01 2.199975e-01
5.556620e-01 7.010434e-01 4.066364e-01
5.562714e-01 9.799991e-01 4.060526e-01
7.506634e-01 9.799985e-01 2.199974e-01
7.506634e-01 1.500000e+00 2.199973e-01
7.506633e-01 9.799985e-01 2.199973e-01
5.562714e-01 9.799991e-01 4.060525e-01
5.574079e-01 1.500000e+00 4.049648e-01
7.506634e-01 1.500000e+00 2.199973e-01
5.574079e-01 1.500000e+00 4.049648e-01
5.562714e-01 2.020001e+00 4.060526e-01
7.506634e-01 2.020001e+00 2.199973e-01
7.506641e-01 2.314106e+00 2.199974e-01
7.506635e-01 2.020001e+00 2.199974e-01
5.562714e-01 2.020001e+00 4.060526e-01
5.556620e-01 2.298957e+00 4.066365e-01
7.506641e-01 2.314106e+00 2.199974e-01
5.556620e-01 2.298957e+00 4.066365e-01
5.351087e-01 3.033042e+00 4.263099e-01
6.781148e-01 3.059999e+00 2.894370e-01
7.506656e-01 3.059999e+00 2.199976e-01
7.506579e-01 3.073674e+00 2.199893e-01
7.506580e-01 3.059999e+00 2.199897e-01
6.781109e-01 3.059999e+00 2.894302e-01
7.506579e-01 3.073674e+00 2.199893e-01
6.781109e-01 3.059999e+00 2.894302e-01
5.320896e-01 3.059999e+00 4.291985e-01
4.533089e-01 3.763384e+00 5.045803e-01
7.506523e-01 3.870586e+00 2.199660e-01
POLYGONS 90 448
4 0 1 2 3
4 4 5 6 7
4 8 9 10 11
4 12 13 14 15
4 16 17 18 19
4 20 21 22 23
4 24 25 26 27
4 28 29 30 31
4 32 33 34 35
4 36 37 38 39
4 40 41 42 43
4 44 45 46 47
3 48 49 50
3 51 52 53
4 54 55 56 57
3 58 59 60
4 61 62 63 64
4 65 66 67 68
4 69 70 71 72
4 73 74 75 76
4 77 78 79 80
4 81 82 83 84
4 85 86 87 88
4 89 90 91 92
4 93 94 95 96
4 97 98 99 100
4 101 102 103 104
4 105 106 107 108
4 109 110 111 112
4 113 114 115 116
4 117 118 119 120
4 121 122 123 124
4 125 126 127 128
3 129 130 131
4 132 133 134 135
4 136 137 138 139
4 140 141 142 143
4 144 145 146 147
4 148 149 150 151
4 152 153 154 155
4 156 157 158 159
4 160 161 162 163
4 164 165 166 167
4 168 169 170 171
4 172 173 174 175
4 176 177 178 179
4 180 181 182 183
4 184 185 186 187
4 188 189 190 191
4 192 193 194 195
4 196 197 198 199
4 200 201 202 203
4 204 205 206 207
4 208 209 210 211
4 212 213 214 215
4 216 217 218 219
4 220 221 222 223
4 224 225 226 227
4 228 229 230 231
4 232 233 234 235
4 236 237 238 239
4 240 241 242 243
4 244 245 246 247
4 248 249 250 251
4 252 253 254 255
4 256 257 258 259
4 260 261 262 263
4 264 265 266 267
4 268 269 270 271
4 272 273 274 275
4 276 277 278 279
4 280 281 282 283
4 284 285 286 287
4 288 289 290 291
4 292 293 294 295
4 296 297 298 299
4 300 301 302 303
4 304 305 306 307
4 308 309 310 311
4 312 313 314 315
5 316 317 318 319 320
3 321 322 323
5 324 325 326 327 328
4 329 330 331 332
4 333 334 335 336
4 337 338 339 340
4 341 342 343 344
5 345 346 347 348 349
3 350 351 352
5 353 354 355 356 357
CELL_DATA 90
SCALARS cp_pressure float
LOOKUP_TABLE default
0.000000e+00
0.000000e+00
0.000000e+00
0.000000e+00
0.000000e+00
0.000000e+00
0.000000e+00
0.000000e+00
0.000000e+00
0.000000e+00
0.000000e+00
0.000000e+00
0.000000e+00
0.000000e+00
0.000000e+00
0.000000e+00
0.000000e+00
0.000000e+00
0.000000e+00
0.000000e+00
0.000000e+00
0.000000e+00
0.000000e+00
0.000000e+00
0.000000e+00
0.000000e+00
0.000000e+00
0.000000e+00
0.000000e+00
0.000000e+00
0.000000e+00
0.000000e+00
0.000000e+00
0.000000e+00
0.000000e+00
0.000000e+00
0.000000e+00
0.000000e+00
0.000000e+00
0.000000e+00
0.000000e+00
0.000000e+00
0.000000e+00
0.000000e+00
0.000000e+00
0.000000e+00
0.000000e+00
0.000000e+00
0.000000e+00
0.000000e+00
0.000000e+00
0.000000e+00
0.000000e+00
0.000000e+00
0.000000e+00
0.000000e+00
0.000000e+00
0.000000e+00
0.000000e+00
0.000000e+00
0.000000e+00
0.000000e+00
0.000000e+00
0.000000e+00
0.000000e+00
0.000000e+00
0.000000e+00
0.000000e+00
0.000000e+00
0.000000e+00
0.000000e+00
0.000000e+00
0.000000e+00
0.000000e+00
0.000000e+00
0.000000e+00
0.000000e+00
0.000000e+00
0.000000e+00
0.000000e+00
0.000000e+00
0.000000e+00
0.000000e+00
0.000000e+00
0.000000e+00
0.000000e+00
0.000000e+00
0.000000e+00
0.000000e+00
0.000000e+00
