# vtk DataFile Version 3.0
vtk output
ASCII
DATASET POLYDATA
FIELD FieldData 2
TIME 1 1 double
1.000000e+00
CYCLE 1 1 int
1
POINTS 676 float
4.364685e+00 -9.148261e-01 2.199989e-01
4.364662e+00 -7.144525e-02 2.200084e-01
4.646911e+00 -7.340665e-02 4.901185e-01
4.698037e+00 -8.739733e-01 5.390158e-01
4.364662e+00 -7.144525e-02 2.200084e-01
4.364661e+00 -6.003416e-02 2.200086e-01
4.646824e+00 -6.001571e-02 4.900362e-01
4.646911e+00 -7.340665e-02 4.901185e-01
4.836597e+00 -8.364664e-01 6.716182e-01
4.698037e+00 -8.739733e-01 5.390158e-01
4.646911e+00 -7.340665e-02 4.901185e-01
4.793849e+00 -6.000609e-02 6.307382e-01
4.836574e+00 -6.000330e-02 6.716255e-01
4.793849e+00 -6.000609e-02 6.307382e-01
4.646911e+00 -7.340665e-02 4.901185e-01
4.646824e+00 -6.001571e-02 4.900362e-01
4.646827e+00 -6.001571e-02 4.900334e-01
4.364648e+00 -6.003416e-02 2.200224e-01
4.364650e+00 6.919719e-01 2.200330e-01
4.642048e+00 6.812363e-01 4.854691e-01
4.364650e+00 6.919719e-01 2.200330e-01
4.364651e+00 9.799854e-01 2.200371e-01
4.644939e+00 9.799928e-01 4.882392e-01
4.642048e+00 6.812363e-01 4.854691e-01
4.836587e+00 -5.610934e-02 6.716117e-01
4.793857e+00 -6.000609e-02 6.307244e-01
4.646827e+00 -6.001571e-02 4.900334e-01
4.642048e+00 6.812363e-01 4.854691e-01
4.836583e+00 6.862651e-01 6.716157e-01
4.836583e+00 6.862651e-01 6.716157e-01
4.642048e+00 6.812363e-01 4.854691e-01
4.644939e+00 9.799928e-01 4.882392e-01
4.836581e+00 9.799978e-01 6.716173e-01
4.644940e+00 9.799928e-01 4.882390e-01
4.364650e+00 9.799854e-01 2.200383e-01
4.364650e+00 1.500000e+00 2.200383e-01
4.649975e+00 1.500000e+00 4.930575e-01
4.364650e+00 1.500000e+00 2.200383e-01
4.364650e+00 2.020014e+00 2.200383e-01
4.644940e+00 2.020007e+00 4.882390e-01
4.649975e+00 1.500000e+00 4.930575e-01
4.836582e+00 1.500000e+00 6.716161e-01
4.836582e+00 9.799978e-01 6.716161e-01
4.644940e+00 9.799928e-01 4.882390e-01
4.649975e+00 1.500000e+00 4.930575e-01
4.836582e+00 1.500000e+00 6.716161e-01
4.649975e+00 1.500000e+00 4.930575e-01
4.644940e+00 2.020007e+00 4.882390e-01
4.836582e+00 2.020002e+00 6.716161e-01
4.644939e+00 2.020007e+00 4.882392e-01
4.364651e+00 2.020014e+00 2.200371e-01
4.364650e+00 2.308028e+00 2.200330e-01
4.642048e+00 2.318764e+00 4.854691e-01
4.364650e+00 2.308028e+00 2.200330e-01
4.364648e+00 3.060034e+00 2.200224e-01
4.646827e+00 3.060015e+00 4.900332e-01
4.642048e+00 2.318764e+00 4.854691e-01
4.836583e+00 2.313735e+00 6.716157e-01
4.836581e+00 2.020002e+00 6.716173e-01
4.644939e+00 2.020007e+00 4.882392e-01
4.642048e+00 2.318764e+00 4.854691e-01
4.836583e+00 2.313735e+00 6.716157e-01
4.642048e+00 2.318764e+00 4.854691e-01
4.646827e+00 3.060015e+00 4.900332e-01
4.793861e+00 3.060006e+00 6.307275e-01
4.836588e+00 3.056109e+00 6.716118e-01
4.646824e+00 3.060015e+00 4.900361e-01
4.364661e+00 3.060034e+00 2.200085e-01
4.364662e+00 3.071445e+00 2.200084e-01
4.646911e+00 3.073407e+00 4.901183e-01
4.364662e+00 3.071445e+00 2.200084e-01
4.364685e+00 3.914826e+00 2.199989e-01
4.698038e+00 3.873973e+00 5.390156e-01
4.646911e+00 3.073407e+00 4.901183e-01
4.793853e+00 3.060006e+00 6.307412e-01
4.646824e+00 3.060015e+00 4.900361e-01
4.646911e+00 3.073407e+00 4.901183e-01
4.793853e+00 3.060006e+00 6.307412e-01
4.646911e+00 3.073407e+00 4.901183e-01
4.698038e+00 3.873973e+00 5.390156e-01
4.836598e+00 3.836466e+00 6.716182e-01
4.836575e+00 3.060003e+00 6.716256e-01
3.806268e+00 -9.444705e-01 -1.188267e-01
3.806262e+00 -6.965613e-01 -1.188180e-01
3.816166e+00 -9.442700e-01 -1.128206e-01
3.806249e+00 -7.083752e-02 -1.187963e-01
4.248744e+00 -7.076397e-02 1.496858e-01
4.291309e+00 -9.224741e-01 1.754715e-01
3.816166e+00 -9.442700e-01 -1.128206e-01
3.806262e+00 -6.965613e-01 -1.188180e-01
3.806249e+00 -7.083752e-02 -1.187963e-01
3.806249e+00 -6.005051e-02 -1.187959e-01
4.248477e+00 -6.003756e-02 1.495242e-01
4.248744e+00 -7.076397e-02 1.496858e-01
4.364690e+00 -9.146920e-01 2.199954e-01
4.291309e+00 -9.224741e-01 1.754715e-01
4.248744e+00 -7.076397e-02 1.496858e-01
4.364654e+00 -7.145700e-02 2.200137e-01
4.364654e+00 -7.145700e-02 2.200137e-01
4.248744e+00 -7.076397e-02 1.496858e-01
4.248477e+00 -6.003756e-02 1.495242e-01
4.364654e+00 -6.003416e-02 2.200140e-01
4.248474e+00 -6.003756e-02 1.495276e-01
3.806252e+00 -6.005051e-02 -1.188021e-01
3.806262e+00 7.086274e-01 -1.187821e-01
4.229638e+00 6.963821e-01 1.381125e-01
3.806262e+00 7.086274e-01 -1.187821e-01
3.806265e+00 9.799745e-01 -1.187750e-01
4.227725e+00 9.799827e-01 1.369571e-01
4.229638e+00 6.963821e-01 1.381125e-01
4.364650e+00 6.918938e-01 2.200340e-01
4.364650e+00 -6.003416e-02 2.200201e-01
4.248474e+00 -6.003756e-02 1.495276e-01
4.229638e+00 6.963821e-01 1.381125e-01
4.364650e+00 6.918938e-01 2.200340e-01
4.229638e+00 6.963821e-01 1.381125e-01
4.227725e+00 9.799827e-01 1.369571e-01
4.364649e+00 9.799854e-01 2.200394e-01
4.227726e+00 9.799827e-01 1.369567e-01
3.806264e+00 9.799745e-01 -1.187740e-01
3.806264e+00 1.500000e+00 -1.187740e-01
4.224223e+00 1.500000e+00 1.348311e-01
3.806264e+00 1.500000e+00 -1.187740e-01
3.806264e+00 2.020025e+00 -1.187740e-01
4.227726e+00 2.020017e+00 1.369566e-01
4.224223e+00 1.500000e+00 1.348311e-01
4.364650e+00 1.500000e+00 2.200383e-01
4.364650e+00 9.799854e-01 2.200384e-01
4.227726e+00 9.799827e-01 1.369567e-01
4.224223e+00 1.500000e+00 1.348311e-01
4.364650e+00 1.500000e+00 2.200383e-01
4.224223e+00 1.500000e+00 1.348311e-01
4.227726e+00 2.020017e+00 1.369566e-01
4.364650e+00 2.020014e+00 2.200383e-01
4.227725e+00 2.020017e+00 1.369571e-01
3.806265e+00 2.020025e+00 -1.187750e-01
3.806262e+00 2.291373e+00 -1.187821e-01
4.229638e+00 2.303618e+00 1.381125e-01
3.806262e+00 2.291373e+00 -1.187821e-01
3.806253e+00 3.060050e+00 -1.188021e-01
4.248474e+00 3.060037e+00 1.495275e-01
4.229638e+00 2.303618e+00 1.381125e-01
4.364650e+00 2.308106e+00 2.200340e-01
4.364649e+00 2.020014e+00 2.200394e-01
4.227725e+00 2.020017e+00 1.369571e-01
4.229638e+00 2.303618e+00 1.381125e-01
4.364650e+00 2.308106e+00 2.200340e-01
4.229638e+00 2.303618e+00 1.381125e-01
4.248474e+00 3.060037e+00 1.495275e-01
4.364650e+00 3.060034e+00 2.200201e-01
3.806263e+00 3.696567e+00 -1.188181e-01
3.806268e+00 3.944470e+00 -1.188267e-01
3.816166e+00 3.944270e+00 -1.128208e-01
4.248477e+00 3.060037e+00 1.495241e-01
3.806249e+00 3.060050e+00 -1.187959e-01
3.806249e+00 3.070838e+00 -1.187963e-01
4.248744e+00 3.070764e+00 1.496857e-01
3.806249e+00 3.070838e+00 -1.187963e-01
3.806263e+00 3.696567e+00 -1.188181e-01
3.816166e+00 3.944270e+00 -1.128208e-01
4.291309e+00 3.922474e+00 1.754714e-01
4.248744e+00 3.070764e+00 1.496857e-01
4.364654e+00 3.071457e+00 2.200137e-01
4.364654e+00 3.060034e+00 2.200140e-01
4.248477e+00 3.060037e+00 1.495241e-01
4.248744e+00 3.070764e+00 1.496857e-01
4.364654e+00 3.071457e+00 2.200137e-01
4.248744e+00 3.070764e+00 1.496857e-01
4.291309e+00 3.922474e+00 1.754714e-01
4.364690e+00 3.914692e+00 2.199954e-01
3.187733e+00 -9.572835e-01 -3.287365e-01
3.187721e+00 -7.541909e-02 -3.287319e-01
3.248647e+00 -7.350099e-02 -3.080545e-01
3.282217e+00 -9.538419e-01 -2.966700e-01
3.187721e+00 -7.541909e-02 -3.287319e-01
3.187721e+00 -6.005883e-02 -3.287318e-01
3.248291e+00 -6.005801e-02 -3.081753e-01
3.248647e+00 -7.350099e-02 -3.080545e-01
3.806263e+00 -9.444389e-01 -1.188165e-01
3.282217e+00 -9.538419e-01 -2.966700e-01
3.248647e+00 -7.350099e-02 -3.080545e-01
3.778116e+00 -7.084190e-02 -1.283606e-01
3.806261e+00 -7.255115e-01 -1.188150e-01
3.806256e+00 -7.083752e-02 -1.188105e-01
3.806261e+00 -7.255115e-01 -1.188150e-01
3.778116e+00 -7.084190e-02 -1.283606e-01
3.248292e+00 -6.005801e-02 -3.081796e-01
3.187723e+00 -6.005883e-02 -3.287371e-01
3.187723e+00 7.209556e-01 -3.287145e-01
3.227574e+00 7.212578e-01 -3.151888e-01
3.187723e+00 7.209556e-01 -3.287145e-01
3.187723e+00 9.799621e-01 -3.287071e-01
3.224747e+00 9.799629e-01 -3.161411e-01
3.227574e+00 7.212578e-01 -3.151888e-01
3.777635e+00 -6.005090e-02 -1.285183e-01
3.248292e+00 -6.005801e-02 -3.081796e-01
3.227574e+00 7.212578e-01 -3.151888e-01
3.743435e+00 7.101765e-01 -1.401040e-01
3.739405e+00 9.799732e-01 -1.414639e-01
3.743435e+00 7.101765e-01 -1.401040e-01
3.227574e+00 7.212578e-01 -3.151888e-01
3.224747e+00 9.799629e-01 -3.161411e-01
3.806261e+00 7.085230e-01 -1.187806e-01
3.806254e+00 -6.005051e-02 -1.188051e-01
3.777635e+00 -6.005090e-02 -1.285183e-01
3.743435e+00 7.101765e-01 -1.401040e-01
3.806261e+00 7.085230e-01 -1.187806e-01
3.743435e+00 7.101765e-01 -1.401040e-01
3.739405e+00 9.799732e-01 -1.414639e-01
3.806264e+00 9.799745e-01 -1.187720e-01
3.224746e+00 9.799629e-01 -3.161393e-01
3.187723e+00 9.799621e-01 -3.287050e-01
3.187723e+00 1.500000e+00 -3.287050e-01
3.219067e+00 1.500000e+00 -3.180668e-01
3.187723e+00 1.500000e+00 -3.287050e-01
3.187723e+00 2.020038e+00 -3.287050e-01
3.224746e+00 2.020037e+00 -3.161394e-01
3.219067e+00 1.500000e+00 -3.180668e-01
3.739406e+00 9.799732e-01 -1.414655e-01
3.224746e+00 9.799629e-01 -3.161393e-01
3.219067e+00 1.500000e+00 -3.180668e-01
3.731643e+00 1.500000e+00 -1.441001e-01
3.739406e+00 2.020027e+00 -1.414656e-01
3.731643e+00 1.500000e+00 -1.441001e-01
3.219067e+00 1.500000e+00 -3.180668e-01
3.224746e+00 2.020037e+00 -3.161394e-01
3.806264e+00 1.500000e+00 -1.187740e-01
3.806264e+00 9.799745e-01 -1.187740e-01
3.739406e+00 9.799732e-01 -1.414655e-01
3.731643e+00 1.500000e+00 -1.441001e-01
3.806264e+00 1.500000e+00 -1.187740e-01
3.731643e+00 1.500000e+00 -1.441001e-01
3.739406e+00 2.020027e+00 -1.414656e-01
3.806264e+00 2.020025e+00 -1.187740e-01
3.224747e+00 2.020037e+00 -3.161411e-01
3.187723e+00 2.020038e+00 -3.287071e-01
3.187723e+00 2.279044e+00 -3.287145e-01
3.227574e+00 2.278742e+00 -3.151889e-01
3.187723e+00 2.279044e+00 -3.287145e-01
3.187723e+00 3.060059e+00 -3.287371e-01
3.248292e+00 3.060058e+00 -3.081797e-01
3.227574e+00 2.278742e+00 -3.151889e-01
3.739405e+00 2.020027e+00 -1.414640e-01
3.224747e+00 2.020037e+00 -3.161411e-01
3.227574e+00 2.278742e+00 -3.151889e-01
3.743435e+00 2.289824e+00 -1.401040e-01
3.777635e+00 3.060051e+00 -1.285185e-01
3.743435e+00 2.289824e+00 -1.401040e-01
[...]
CELL_DATA 168
SCALARS cp_pressure float
LOOKUP_TABLE default
0.000000e+00
0.000000e+00
0.000000e+00
0.000000e+00
0.000000e+00
0.000000e+00
0.000000e+00
0.000000e+00
0.000000e+00
0.000000e+00
0.000000e+00
0.000000e+00
0.000000e+00
0.000000e+00
0.000000e+00
0.000000e+00
0.000000e+00
0.000000e+00
0.000000e+00
0.000000e+00
0.000000e+00
0.000000e+00
0.000000e+00
0.000000e+00
0.000000e+00
0.000000e+00
0.000000e+00
0.000000e+00
0.000000e+00
0.000000e+00
0.000000e+00
0.000000e+00
0.000000e+00
0.000000e+00
0.000000e+00
0.000000e+00
0.000000e+00
0.000000e+00
0.000000e+00
0.000000e+00
0.000000e+00
0.000000e+00
0.000000e+00
0.000000e+00
0.000000e+00
0.000000e+00
0.000000e+00
0.000000e+00
0.000000e+00
0.000000e+00
0.000000e+00
0.000000e+00
0.000000e+00
0.000000e+00
0.000000e+00
0.000000e+00
0.000000e+00
0.000000e+00
0.000000e+00
0.000000e+00
0.000000e+00
0.000000e+00
0.000000e+00
0.000000e+00
0.000000e+00
0.000000e+00
0.000000e+00
0.000000e+00
0.000000e+00
0.000000e+00
0.000000e+00
0.000000e+00
0.000000e+00
0.000000e+00
0.000000e+00
0.000000e+00
0.000000e+00
0.000000e+00
0.000000e+00
0.000000e+00
0.000000e+00
0.000000e+00
0.000000e+00
0.000000e+00
0.000000e+00
0.000000e+00
0.000000e+00
0.000000e+00
0.000000e+00
0.000000e+00
0.000000e+00
0.000000e+00
0.000000e+00
0.000000e+00
0.000000e+00
0.000000e+00
0.000000e+00
0.000000e+00
0.000000e+00
0.000000e+00
0.000000e+00
0.000000e+00
0.000000e+00
0.000000e+00
0.000000e+00
0.000000e+00
0.000000e+00
0.000000e+00
0.000000e+00
0.000000e+00
0.000000e+00
0.000000e+00
0.000000e+00
0.000000e+00
0.000000e+00
0.000000e+00
0.000000e+00
0.000000e+00
0.000000e+00
0.000000e+00
0.000000e+00
0.000000e+00
0.000000e+00
0.000000e+00
0.000000e+00
0.000000e+00
0.000000e+00
0.000000e+00
0.000000e+00
0.000000e+00
0.000000e+00
0.000000e+00
0.000000e+00
0.000000e+00
0.000000e+00
0.000000e+00
0.000000e+00
0.000000e+00
0.000000e+00
0.000000e+00
0.000000e+00
0.000000e+00
0.000000e+00
0.000000e+00
0.000000e+00
0.000000e+00
0.000000e+00
0.000000e+00
0.000000e+00
0.000000e+00
0.000000e+00
0.000000e+00
0.000000e+00
0.000000e+00
0.000000e+00
0.000000e+00
0.000000e+00
0.000000e+00
0.000000e+00
0.000000e+00
0.000000e+00
0.000000e+00
0.000000e+00
0.000000e+00
0.000000e+00
0.000000e+00
0.000000e+00
0.000000e+00
